83
E:\Data\PythonProjects\short_bridge\out\l_13.out	Energy: -1304639.6423896
P          1.11925       -0.32025       -0.25200
P         -1.68207       -0.31468       -0.80105
O         -0.38467       -2.67610       -1.14049
C         -2.79945       -0.03660       -2.32693
C         -2.14719        1.05340       -3.19008
C         -2.94545       -1.33438       -3.13293
C         -4.17976        0.42249       -1.83043
C         -0.16067       -1.28247       -1.32057
C         -1.48843       -2.92147       -0.35744
C         -2.28887       -1.83606        0.01098
C         -3.70318       -3.33610        1.25239
C         -1.79166       -4.21490        0.04380
C         -2.90697       -4.40933        0.85086
H         -4.56123       -3.50687        1.88891
H         -1.16576       -5.04109       -0.26646
H         -3.15479       -5.41170        1.17629
H         -2.00363        1.98429       -2.64014
H          0.11649       -1.11859       -2.36149
H         -1.17735        0.73937       -3.58243
H         -3.40980       -2.12953       -2.54958
H         -4.67249       -0.34665       -1.23397
H         -2.78961        1.26493       -4.04849
H         -1.98919       -1.69926       -3.51162
H         -3.58527       -1.14302       -3.99858
H         -4.13053        1.33898       -1.24016
H         -4.82054        0.62531       -2.69231
Rh        -0.49922        1.37185        0.34519
C         -2.07289        3.02927        0.35709
C         -2.17363        2.28782        1.51751
C          0.69402        2.72560        1.75255
C          0.81966        3.19593        0.46222
H         -2.74038        2.76215       -0.45245
C         -1.43061        4.39707        0.23187
H         -2.92989        1.50939        1.54397
C         -1.60597        2.64250        2.86882
C         -0.21194        3.30379        2.82275
H          1.48364        2.07986        2.11319
H          1.70965        2.90568       -0.08418
C          0.05695        4.33393       -0.16705
H         -1.55416        4.94952        1.16281
H         -1.97008        4.96590       -0.52717
H         -2.30964        3.29214        3.40436
H         -1.54589        1.72264        3.45454
H          0.26683        3.16562        3.79346
H         -0.30469        4.38092        2.68625
H          0.55089        5.28334        0.07533
H          0.13328        4.22743       -1.25131
C         -3.39601       -2.04746        0.83188
H         -4.01948       -1.21737        1.13937
C          1.96649       -1.38557        1.07113
C          2.49223       -0.48243        2.20497
C          1.13543       -2.53882        1.65578
H          2.82329       -1.82075        0.54811
C          3.31726       -1.28290        3.22116
H          1.63500       -0.03506        2.71697
H          3.09254        0.33933        1.80910
C          1.94633       -3.33029        2.69439
H          0.23012       -2.14062        2.12557
H          0.82037       -3.21421        0.86518
C          2.50597       -2.44090        3.80547
H          3.65965       -0.61442        4.01500
H          4.21779       -1.67289        2.73389
H          1.31403       -4.11573        3.11540
H          2.77350       -3.83939        2.18689
H          3.12351       -3.03067        4.48658
H          1.67991       -2.03886        4.40314
C          2.47293        0.01471       -1.53132
C          3.66332        0.81333       -0.96949
C          2.97860       -1.25165       -2.24898
H          1.96201        0.64779       -2.26674
C          4.65298        1.18196       -2.08488
H          4.18639        0.20980       -0.22154
H          3.32651        1.71899       -0.46150
C          3.97177       -0.88913       -3.36470
H          3.47838       -1.90721       -1.52911
H          2.15264       -1.82856       -2.67000
C          5.14359       -0.05854       -2.83545
H          5.49729        1.72592       -1.65487
H          4.16562        1.86742       -2.78725
H          4.33535       -1.80545       -3.83554
H          3.44679       -0.32618       -4.14461
H          5.79938        0.23409       -3.65840
H          5.74901       -0.67414       -2.16066
