81
E:\Data\PythonProjects\short_bridge\out\l_18.out	Energy: -1186332.1445011
P         -0.15588        1.53212        0.38741
P         -0.70678       -1.22427        0.62953
C         -0.95100       -2.60558        1.95472
C         -0.16116       -2.31576        3.23507
C         -2.44741       -2.71958        2.27329
C         -0.44605       -3.91249        1.32027
C         -1.68682        0.42532        0.67211
C         -0.52585        2.94882       -0.89022
C         -1.21638       -1.80018       -0.95863
C         -1.81249        3.74690       -0.60889
C         -0.62761        2.32318       -2.29589
C          0.21585        2.28396        2.13887
C          1.65701        2.82074        2.19710
C         -0.77028        3.39223        2.53656
C          0.12238        1.15389        3.17436
C          0.66670        3.92397       -0.89668
H          0.90047       -2.16177        3.03845
H          1.86261        3.60156        1.46937
H          2.38294        2.01949        2.06209
H         -2.19289        0.69097        1.59839
H         -0.54452       -1.45174        3.77475
H         -3.02920       -3.00486        1.39638
H         -0.97536       -4.15500        0.40105
H         -2.69163        3.11670       -0.48484
H         -1.56478        1.79504       -2.45220
H         -1.81295        3.09187        2.41967
H          0.52849        4.63201       -1.71764
H          1.62178        3.42250       -1.05978
H         -0.25307       -3.17953        3.89859
H         -2.85791       -1.79428        2.68086
H         -1.72885        4.38116        0.26869
H         -0.61816        3.63052        3.59278
H          0.73311        4.50781        0.01913
H         -2.58582       -3.49768        3.02900
H         -2.00305        4.40219       -1.46351
H         -0.61056        4.31180        1.97708
H          0.44217        1.54506        4.14358
H         -0.89280        0.78029        3.30164
H          0.77970        0.32185        2.92425
H          0.62131       -3.87851        1.09994
H         -0.60406       -4.72044        2.03979
H         -0.58825        3.12634       -3.03588
H          0.18699        1.63236       -2.50704
H          1.82598        3.25004        3.18815
Rh         1.28348       -0.30084       -0.19621
C          2.75914       -2.06224       -0.07751
C          2.03157       -2.19696       -1.23653
C          2.79352        0.58519       -1.73103
C          3.26842        0.78534       -0.45469
H          2.39346       -2.58973        0.79692
C          4.18830       -1.56495        0.02018
H          1.14715       -2.82364       -1.21292
C          2.45239       -1.79057       -2.62433
C          3.26475       -0.48185       -2.69844
H          2.24085        1.40304       -2.17611
H          3.08974        1.75944       -0.01516
C          4.29598       -0.04672        0.27170
H          4.73448       -1.84058       -0.88131
H          4.68265       -2.08703        0.84095
H          3.01993       -2.60677       -3.08831
H          1.54404       -1.68522       -3.22094
H          3.18855       -0.08475       -3.71205
H          4.32371       -0.67905       -2.53244
H          5.30169        0.30293        0.00739
H          4.18921        0.14767        1.34149
C         -2.19564       -0.82718       -1.50922
H         -1.71088       -0.34011       -2.36463
C         -2.70591        0.26382       -0.48544
H         -2.80599        1.21130       -1.01057
C         -4.56814       -0.72011       -2.40379
H         -5.34119       -1.26877       -2.94499
H         -4.24531        0.08511       -3.07107
C         -5.14588       -0.13247       -1.09676
H         -6.00238       -0.72410       -0.76651
H         -5.52615        0.87467       -1.28361
C         -4.10657       -0.09381        0.03847
H         -4.07078       -1.06396        0.53987
H         -4.41574        0.62878        0.79791
C         -3.37913       -1.64069       -2.12881
H         -3.02349       -2.12592       -3.03693
H         -3.68020       -2.44235       -1.44930
