60
E:\Data\PythonProjects\short_bridge\out\l_2.out	Energy: -966612.9557915
C          2.43451       -0.01066       -0.00192
H          3.07729        0.29531        0.82292
H          3.07170       -0.32273       -0.82881
C          1.52527        1.53958       -2.32611
H          2.54893        1.86606       -2.50961
H          0.83452        2.27424       -2.73786
H          1.35423        0.59259       -2.83688
C          1.70077        2.92873        0.32389
C          0.79121        4.04881       -0.20905
H          1.03119        4.98154        0.30694
H         -0.26577        3.84310       -0.03295
H          0.93448        4.22508       -1.27613
C          3.16963        3.26915        0.02936
H          3.35122        3.44208       -1.03209
H          3.85548        2.49302        0.37364
H          3.43504        4.18999        0.55514
C          1.49197        2.76462        1.83750
H          1.72287        3.70734        2.33922
H          2.15065        2.00549        2.26464
H          0.46167        2.49884        2.08002
C          1.51443       -1.55014        2.32507
H          2.53553       -1.88500        2.50786
H          0.81800       -2.27853        2.73836
H          1.35190       -0.60122        2.83500
C          1.67481       -2.94382       -0.32351
C          3.14107       -3.29644       -0.03047
H          3.39790       -4.22021       -0.55537
H          3.32253       -3.46948        1.03098
H          3.83308       -2.52666       -0.37669
C          0.75638       -4.05544        0.21192
H          0.98758       -4.99076       -0.30340
H         -0.29906       -3.84088        0.03710
H          0.89965       -4.23182        1.27897
C          1.46538       -2.77971       -1.83706
H          2.13022       -2.02705       -2.26611
H          0.43716       -2.50502       -2.07850
H          1.68715       -3.72509       -2.33791
C         -2.37542        1.55061        0.20154
H         -1.84804        2.43113        0.54976
C         -2.23788        1.22796       -1.13229
H         -1.64790        1.90033       -1.74664
C         -3.07539        0.24732       -1.91422
H         -3.97481        0.74854       -2.29306
H         -2.50503       -0.04606       -2.79828
C         -3.47608       -1.01852       -1.12746
H         -3.71856       -1.80655       -1.84224
H         -4.38812       -0.84096       -0.55856
C         -2.38838       -1.53025       -0.20118
H         -1.86818       -2.41496       -0.54961
C         -2.24801       -1.20897        1.13265
H         -1.66357       -1.88633        1.74683
C         -3.07676       -0.22114        1.91479
H         -3.98017       -0.71455        2.29436
H         -2.50333        0.06764        2.79839
C         -3.46716        1.04789        1.12799
H         -4.38069        0.87777        0.55922
H         -3.70308        1.83789        1.84277
P          1.19948        1.30153       -0.52022
P          1.18866       -1.31136        0.51927
Rh        -0.71618        0.00324        0.00010
