77
E:\Data\PythonProjects\short_bridge\out\l_21.out	Energy: -1383450.6397821
N          0.71552        1.09366        0.66399
O          0.07051        2.74939       -1.08862
P         -0.72680        1.82751        0.04632
P          0.35343       -0.60369        0.44917
C          1.89246        1.97170        0.39678
H          2.00894        2.62843        1.25837
C          1.50336        2.78449       -0.88896
H          1.77921        3.83149       -0.76084
C          2.29377        2.15173       -2.04878
H          1.66790        1.42492       -2.57394
H          2.61044        2.89444       -2.78177
C          3.44839        1.47631       -1.34931
C          3.20437        1.34143        0.01988
C          4.15770        0.78817        0.86650
H          3.97957        0.71359        1.93291
C          5.35923        0.34237        0.32379
H          6.11798       -0.08302        0.96853
C          5.60069        0.46347       -1.04422
H          6.54547        0.12652       -1.45247
C          4.65035        1.03434       -1.88752
H          4.85725        1.14511       -2.94523
C         -1.42484        3.11200        1.24334
C         -0.34327        4.02825        1.83067
H          0.20787        4.56501        1.05781
H          0.36013        3.48005        2.45834
H         -0.82382        4.77851        2.46407
C         -2.42533        3.95361        0.42796
H         -2.90135        4.68134        1.08953
H         -3.21963        3.34744       -0.01151
H         -1.93063        4.50172       -0.37461
C         -2.14326        2.35711        2.37196
H         -2.62299        3.07854        3.03804
H         -1.44889        1.76432        2.97019
H         -2.91611        1.68748        1.99169
Rh        -1.81937       -0.17672       -0.35558
C         -4.01506        0.40551       -0.71707
C         -3.34775        0.37339       -1.92215
C         -2.43199       -2.27866       -1.06291
C         -2.84995       -2.10331        0.23774
H         -4.10359        1.37052       -0.23281
C         -4.94142       -0.67088       -0.18474
H         -2.98349        1.31761       -2.31465
C         -3.34459       -0.75904       -2.91946
C         -3.30737       -2.17307       -2.29748
H         -1.47869       -2.77375       -1.21047
H         -2.20927       -2.49353        1.02231
C         -4.23110       -1.71526        0.70268
H         -5.45233       -1.15929       -1.01401
H         -5.72318       -0.19205        0.40708
H         -4.21801       -0.66859       -3.57726
H         -2.47437       -0.62893       -3.56632
H         -2.92867       -2.86813       -3.04855
H         -4.31617       -2.50979       -2.06072
H         -4.85394       -2.61462        0.78685
H         -4.14040       -1.32184        1.71727
C          0.70403       -1.40291        2.06297
C          0.57011       -2.79128        2.18544
C          1.00501       -0.64174        3.19331
C          0.74947       -3.40460        3.41908
H          0.34273       -3.40159        1.31938
C          1.18973       -1.26141        4.42551
H          1.09492        0.43290        3.10885
C          1.06072       -2.64097        4.54111
H          0.64917       -4.47933        3.50388
H          1.43224       -0.66412        5.29557
H          1.20179       -3.12105        5.50114
C          1.45047       -1.43811       -0.77014
C          2.60357       -2.13521       -0.39744
C          1.07114       -1.41279       -2.11760
C          3.36219       -2.79183       -1.35877
H          2.91244       -2.16813        0.63798
C          1.83783       -2.06297       -3.07661
H          0.16673       -0.89107       -2.40856
C          2.98235       -2.75727       -2.69683
H          4.25322       -3.32987       -1.06112
H          1.53631       -2.03833       -4.11637
H          3.57483       -3.27401       -3.44144
