83
E:\Data\PythonProjects\short_bridge\out\l_22.out	Energy: -1806609.8505051
N          0.47226       -0.23656        1.69231
O          0.47890       -2.63377        2.38593
P          1.49236       -1.63176        1.52837
P          0.21142        0.18841        0.02127
C         -0.39272       -0.37433        2.90333
H          0.14483        0.07791        3.73599
C         -0.55697       -1.92243        3.10509
H         -0.43710       -2.17135        4.15961
C         -1.97725       -2.26855        2.62156
H         -1.94300       -2.63194        1.59071
H         -2.43372       -3.05482        3.22359
C         -2.70549       -0.94969        2.71849
C         -1.81185        0.11725        2.84445
C         -2.26916        1.42020        3.00488
H         -1.57555        2.24202        3.13995
C         -3.64108        1.65405        3.00840
H         -4.01717        2.66046        3.14253
C         -4.53560        0.59348        2.86576
H         -5.60104        0.78617        2.88427
C         -4.07467       -0.71365        2.72569
H         -4.77878       -1.53276        2.64175
C          3.02635       -1.50471        2.62265
C          2.70607       -1.00363        4.03706
H          1.98688       -1.64351        4.54924
H          2.33620        0.02230        4.03402
H          3.62472       -1.01307        4.62925
C          3.61161       -2.92819        2.70012
H          4.53590       -2.90117        3.28200
H          3.86036       -3.33178        1.71687
H          2.92609       -3.62028        3.19028
C          4.01304       -0.54827        1.93606
H          4.93922       -0.51243        2.51472
H          3.62025        0.46850        1.87788
H          4.26396       -0.87118        0.92465
Rh         1.62462       -1.51122       -0.78348
C          3.33654       -2.93982       -1.34669
C          2.14490       -3.63155       -1.36087
C          1.17491       -1.43061       -3.04341
C          2.25675       -0.62281       -2.77288
H          3.92433       -2.99689       -0.43838
C          4.07838       -2.42256       -2.56403
H          1.89233       -4.20653       -0.47547
C          1.30455       -3.95122       -2.57237
C          1.23524       -2.82784       -3.63119
H          0.20276       -0.95183       -3.08355
H          2.06421        0.43750       -2.64246
C          3.71454       -0.97035       -2.93904
H          3.90782       -3.08915       -3.40871
H          5.14931       -2.46643       -2.36006
H          1.67316       -4.87380       -3.03762
H          0.29492       -4.18097       -2.22535
H          0.34287       -2.98423       -4.23918
H          2.07930       -2.89956       -4.31627
H          4.02223       -0.76613       -3.97209
H          4.29198       -0.28328       -2.31705
C          0.58970        1.98219       -0.11074
C          0.41330        2.63517       -1.33683
C          1.14312        2.68054        0.96096
C          0.77356        3.96641       -1.47972
H         -0.02022        2.11613       -2.18312
C          1.50112        4.01741        0.82038
H          1.29570        2.18170        1.90816
C          1.31676        4.65911       -0.39839
H          0.62550        4.46815       -2.42715
H          1.91900        4.55713        1.65930
C         -1.54897        0.02661       -0.50569
C         -2.44653        1.09580       -0.49585
C         -1.97456       -1.21862       -0.98236
C         -3.74802        0.92285       -0.94990
H         -2.14221        2.06679       -0.13176
C         -3.27615       -1.39592       -1.42685
H         -1.27815       -2.04805       -1.01213
C         -4.16303       -0.32191       -1.41068
H         -4.43961        1.75395       -0.93394
H         -3.60058       -2.36343       -1.78726
C          1.73867        6.09904       -0.58396
C         -5.56554       -0.51662       -1.94084
F         -6.08080       -1.69893       -1.54447
F         -5.58127       -0.51054       -3.29142
F         -6.40171        0.45133       -1.52453
F          1.91869        6.72747        0.59178
F          2.90195        6.17991       -1.26674
F          0.82014        6.79475       -1.28353
