89
E:\Data\PythonProjects\short_bridge\out\l_23.out	Energy: -2229769.3520850
N         -0.48619       -0.78034        1.69819
O         -2.75183       -0.31511        2.63497
P         -2.11108       -1.37808        1.53158
P         -0.11616       -0.36120        0.05101
C         -0.31462       -0.12246        3.03093
H          0.03903       -0.88587        3.72286
C         -1.75074        0.37895        3.41826
H         -1.95224        0.14628        4.46384
C         -1.75136        1.90138        3.18740
H         -2.19407        2.13459        2.21499
H         -2.34218        2.42731        3.93793
C         -0.28533        2.25877        3.23361
C          0.52123        1.12318        3.11827
C          1.90657        1.21576        3.19582
H          2.52974        0.33008        3.14968
C          2.48651        2.47049        3.35843
H          3.56276        2.56330        3.42766
C          1.68542        3.60815        3.45594
H          2.14861        4.57692        3.59442
C          0.29677        3.50942        3.40088
H         -0.31692        4.39599        3.50678
C         -2.32036       -3.06412        2.35281
C         -1.66140       -3.13209        3.73689
H         -2.05702       -2.37990        4.42015
H         -0.57677       -3.03325        3.68059
H         -1.87178       -4.10990        4.17748
C         -3.83984       -3.28099        2.49237
H         -4.01822       -4.26919        2.92253
H         -4.35648       -3.24911        1.53139
H         -4.29530       -2.54090        3.15113
C         -1.70437       -4.11879        1.42104
H         -1.88891       -5.11306        1.83465
H         -0.62357       -3.99853        1.32701
H         -2.13837       -4.08847        0.42017
Rh        -2.18225       -1.11730       -0.77026
C         -4.09764       -2.21672       -1.41560
C         -4.40274       -0.90050       -1.14469
C         -2.15112       -0.27540       -2.92581
C         -1.68351       -1.56960       -2.94308
H         -4.25528       -2.92976       -0.61515
C         -3.92151       -2.82216       -2.79463
H         -4.80497       -0.67534       -0.16187
C         -4.54920        0.21538       -2.14860
C         -3.54459        0.17399       -3.32191
H         -1.40788        0.51240       -2.87401
H         -0.60681       -1.70807       -2.92833
C         -2.46083       -2.81340       -3.29187
H         -4.56993       -2.31120       -3.50540
H         -4.26729       -3.85648       -2.76383
H         -5.57361        0.21591       -2.54114
H         -4.44003        1.16227       -1.61634
H         -3.47413        1.17679       -3.74514
H         -3.91905       -0.46439       -4.12136
H         -2.43764       -2.96267       -4.37840
H         -1.93058       -3.66736       -2.86511
C          1.51077       -1.14732       -0.30512
C          2.09422       -0.98956       -1.56508
C          2.11862       -1.98076        0.62794
C          3.27633       -1.65072       -1.87364
H          1.63692       -0.35299       -2.31266
C          3.30808       -2.63277        0.31298
H          1.66288       -2.12664        1.59770
C          3.89441       -2.47307       -0.93510
H          4.81303       -2.98754       -1.17911
C          0.18077        1.44652       -0.19837
C          1.45338        2.02597       -0.18879
C         -0.92824        2.24164       -0.47741
C          1.59950        3.37911       -0.45674
H          2.32984        1.43262        0.02513
C         -0.77349        3.60152       -0.73301
H         -1.91399        1.79326       -0.51128
C          0.48851        4.17604       -0.72915
H          0.61005        5.22988       -0.94121
C         -2.00872        4.42842       -1.00350
C          2.97054        4.02038       -0.47948
C          3.93762       -3.51797        1.36549
C          3.90679       -1.43057       -3.23224
F          2.96628       -1.37864       -4.20112
F          4.57935       -0.26188       -3.27174
F          4.76875       -2.40791       -3.55028
F          5.06288       -4.10288        0.93519
F          3.08483       -4.49491        1.74894
F          4.23967       -2.80766        2.47576
F          3.93253        3.16813       -0.08026
F          3.01824        5.09794        0.32962
F          3.28827        4.44039       -1.72001
F         -2.76918        4.54357        0.10930
F         -2.78816        3.84447       -1.94512
F         -1.71576        5.66466       -1.42602
