75
E:\Data\PythonProjects\short_bridge\out\l_25.out	Energy: -1241451.9982214
N          1.14997        0.66813        0.59474
O          0.82329        2.06301       -1.42650
P         -0.12111        1.55152       -0.15243
P          0.42954       -0.90970        0.85368
C          2.47719        1.23598        0.23275
H          2.76253        1.94587        1.01015
C          2.24135        1.97826       -1.14069
H          2.61630        2.99918       -1.07407
C          3.00553        1.18545       -2.21813
H          2.30219        0.64375       -2.85467
H          3.57427        1.84825       -2.87241
C          3.90112        0.25992       -1.43088
C          3.60914        0.29022       -0.06621
C          4.37259       -0.43554        0.84337
H          4.17541       -0.37704        1.90775
C          5.40769       -1.23505        0.36858
H          6.01373       -1.80359        1.06255
C          5.68284       -1.28952       -0.99833
H          6.49704       -1.90720       -1.35615
C          4.93933       -0.53630       -1.90281
H          5.18051       -0.56140       -2.95887
C         -0.53543        3.16639        0.74916
C          0.70924        3.90239        1.26320
H          1.38824        4.18188        0.45751
H          1.25364        3.31669        2.00475
H          0.39356        4.82853        1.75083
C         -1.27070        4.04902       -0.27834
H         -1.58023        4.97705        0.20835
H         -2.17246        3.57322       -0.66854
H         -0.63036        4.30686       -1.12195
C         -1.46358        2.83398        1.92692
H         -1.80617        3.76411        2.38708
H         -0.94954        2.25713        2.69669
H         -2.34353        2.27111        1.61201
Rh        -1.63013       -0.20333       -0.15740
C         -3.56053        0.77121       -0.88772
C         -2.84465        0.29636       -1.96986
C         -2.72899       -2.21186       -0.47499
C         -3.17068       -1.64337        0.69713
H         -3.43398        1.81851       -0.64179
C         -4.77656        0.10906       -0.26835
H         -2.23067        1.00958       -2.51078
C         -3.07765       -0.99984       -2.70504
C         -3.46013       -2.19358       -1.80310
H         -1.93330       -2.94248       -0.39326
H         -2.70413       -1.98364        1.61469
C         -4.43152       -0.84164        0.89680
H         -5.34049       -0.41841       -1.03722
H         -5.44152        0.88808        0.10780
H         -3.84956       -0.85211       -3.47060
H         -2.16250       -1.24071       -3.24982
H         -3.22986       -3.11675       -2.33737
H         -4.53549       -2.20979       -1.62868
H         -5.27160       -1.52204        1.08403
H         -4.31308       -0.25817        1.81230
C          0.79743       -1.36354        2.65184
H          1.73000       -1.93423        2.61112
C         -0.30654       -2.25822        3.23292
H         -0.52781       -3.12765        2.61415
H          0.00005       -2.62654        4.21410
H         -1.22930       -1.69127        3.36981
C          1.01821       -0.13940        3.54218
H          1.82711        0.49691        3.18668
H          0.11550        0.46929        3.61547
H          1.27062       -0.47271        4.55135
C          1.36125       -2.21443       -0.14307
H          2.41626       -2.01565        0.04665
C          1.08825       -2.07260       -1.64274
H          1.75974       -2.73095       -2.19817
H          0.06292       -2.35531       -1.88538
H          1.24646       -1.05845       -2.00378
C          1.05432       -3.64147        0.33280
H          1.60803       -4.34390       -0.29377
H          1.35787       -3.82181        1.36310
H         -0.00387       -3.89364        0.23734
