90
E:\Data\PythonProjects\short_bridge\out\l_26.out	Energy: -2110608.7995701
C          0.45919        0.53995       -2.78344
H          1.32558        1.19566       -2.73459
H         -0.41217        1.12569       -3.05836
H          0.63378       -0.21824       -3.54644
C          2.53801       -1.28017        0.44090
C          3.73820       -1.96313        0.08422
H          4.49227       -2.30032        0.77606
C          3.80040       -2.10325       -1.32550
H          4.60219       -2.55810       -1.88491
C          2.64525       -1.49831       -1.87442
H          2.42123       -1.43194       -2.92579
C          1.84464       -0.97932       -0.79471
C          5.41272        0.93202       -0.11769
H          6.08778        0.55205        0.63222
C          5.51682        0.71573       -1.51971
H          6.28222        0.14148       -2.01642
C          4.42250        1.37094       -2.15022
H          4.22159        1.38803       -3.20954
C          4.25348        1.72122        0.12085
H          3.90486        2.06417        1.08153
C          2.08088       -1.04269        1.86328
H          1.45359       -0.14810        1.86209
C          3.26106       -0.78466        2.81889
H          2.90330       -0.51425        3.81210
H          3.87783        0.03438        2.45317
H          3.90134       -1.66069        2.92772
C          0.55981       -1.84453        3.59806
H         -0.24458       -2.55704        3.78618
H          0.12836       -0.84179        3.59138
H          1.26015       -1.91127        4.44336
C          1.74330       -3.47592        2.29286
H          2.12411       -3.72189        1.30328
H          0.95649       -4.19253        2.53565
H          2.55381       -3.61908        3.02386
Fe         3.72342       -0.08106       -0.81280
N          1.16997       -2.13161        2.30343
P          0.20607       -0.22467       -1.11346
P         -2.54576       -0.92047       -0.65424
C         -0.97351       -1.65253       -1.38494
H         -0.63927       -2.47397       -0.75259
H         -1.04015       -2.01705       -2.41029
Rh        -1.31950        1.01375        0.23891
C         -3.00521        2.43448        0.83579
C         -2.66180        1.66090        1.92390
C          0.06343        2.42922        1.30115
C         -0.27123        2.96244        0.06668
H         -3.84697        2.09660        0.24570
C         -2.59625        3.87829        0.61872
H         -3.27684        0.78992        2.12238
C         -1.75934        2.06319        3.06365
C         -0.51359        2.86845        2.63539
H          1.00476        1.89510        1.35488
H          0.44575        2.82744       -0.73607
C         -1.30568        4.02428       -0.21130
H         -2.48959        4.37855        1.58106
H         -3.40546        4.39543        0.10045
H         -2.33366        2.63050        3.80671
H         -1.43842        1.15132        3.57150
H          0.25384        2.75179        3.40233
H         -0.74205        3.93392        2.60383
H         -0.86781        5.01790       -0.05255
H         -1.55567        3.97567       -1.27356
C         -3.74721       -0.64359       -2.13777
C         -3.20153       -2.28813        0.53724
C         -2.29194       -2.23785        1.77456
H         -1.23667       -2.38236        1.53770
H         -2.38378       -1.29067        2.30553
H         -2.59271       -3.03427        2.46113
C         -4.64499       -1.98867        0.97143
H         -5.36556       -2.15551        0.17178
H         -4.91045       -2.66314        1.78962
H         -4.76840       -0.96867        1.34067
C         -3.12866       -3.70186       -0.06411
H         -3.46268       -4.41527        0.69434
H         -3.76794       -3.83134       -0.93361
H         -2.11320       -3.98712       -0.34039
C         -4.20388       -1.95953       -2.78541
H         -4.88245       -2.52238       -2.14673
H         -4.74717       -1.72727       -3.70553
H         -3.36841       -2.60650       -3.05840
C         -4.97594        0.16359       -1.68349
H         -4.69642        1.15615       -1.33197
H         -5.63894        0.30091       -2.54172
H         -5.55245       -0.32905       -0.90442
C         -3.00636        0.19383       -3.19204
H         -2.17795       -0.34730       -3.64865
H         -3.70582        0.44612       -3.99299
H         -2.63249        1.12981       -2.77339
C          3.64369        1.99349       -1.13554
H          2.75802        2.58848       -1.28940
