90
E:\Data\PythonProjects\short_bridge\out\l_33c.out	Energy: -1670649.2685339
C          2.20614       -1.17232       -1.14339
C          2.16910       -2.31773       -1.95908
H          1.31960       -2.46619       -2.61233
C          3.20924       -3.20444       -1.92004
H          3.20106       -4.08322       -2.55348
C          4.29773       -3.00236       -1.03704
C          5.34129       -3.95535       -0.93232
H          5.30924       -4.83170       -1.56891
C          6.36318       -3.78476       -0.03560
H          7.15256       -4.52165        0.04072
C          6.37666       -2.65165        0.80313
H          7.17132       -2.53314        1.52908
C          5.39164       -1.70009        0.71397
H          5.41882       -0.84320        1.37132
C          4.33079       -1.82918       -0.21821
C          3.27772       -0.85707       -0.33416
C          2.25005        0.76994        1.23324
C          2.24648        1.91471        2.05001
H          1.40596        2.08187        2.71068
C          3.31040        2.77335        2.00359
H          3.33269        3.64992        2.63983
C          4.38543        2.54439        1.11034
C          5.45448        3.46825        1.00049
H          5.45252        4.34259        1.64065
C          6.46404        3.27256        0.09494
H          7.27318        3.98737        0.01533
C          6.44013        2.14256       -0.74800
H          7.22607        2.00474       -1.47999
C          5.43021        1.21807       -0.65409
H          5.42861        0.36188       -1.31299
C          4.38100        1.37338        0.28711
C          3.30284        0.43127        0.40947
C         -3.41724       -1.52547       -1.11037
C         -2.73497       -2.00777       -2.23142
H         -1.65345       -1.99222       -2.25490
C         -3.43911       -2.50755       -3.31955
H         -2.90059       -2.89021       -4.17748
C         -4.83111       -2.51134       -3.31132
H         -5.37814       -2.90021       -4.16079
C         -5.51697       -2.00844       -2.21118
H         -6.59965       -2.00232       -2.20110
C         -4.81676       -1.51361       -1.11549
H         -5.36813       -1.12514       -0.26912
C         -3.39783       -0.97965        1.79693
C         -4.16745       -2.12345        2.03524
H         -4.28266       -2.87849        1.26920
C         -4.79221       -2.30016        3.26396
H         -5.38571       -3.18826        3.44090
C         -4.65504       -1.34140        4.26390
H         -5.14358       -1.48293        5.21970
C         -3.89110       -0.20165        4.03432
H         -3.78375        0.54616        4.80982
C         -3.26742       -0.01939        2.80571
H         -2.67049        0.86758        2.62907
C         -0.40239       -2.72355        0.89494
H          0.63938       -2.77746        0.57375
C         -0.42417       -2.77043        2.42460
H          0.11409       -1.92394        2.84816
H          0.06350       -3.68692        2.76289
H         -1.44210       -2.77085        2.81382
C         -1.14064       -3.90389        0.27024
H         -2.20114       -3.90281        0.52613
H         -0.71400       -4.83227        0.65300
H         -1.04907       -3.91270       -0.81491
N         -0.88356       -1.40574        0.36270
O          1.09959       -0.31445       -1.23029
O          1.12800       -0.06815        1.30832
P          0.07332       -0.04209        0.03248
P         -2.48401       -0.68888        0.23162
Rh        -1.62515        1.42217       -0.32496
C         -0.62832        3.47928       -0.43919
C         -0.56883        2.88601       -1.68246
C         -3.44664        2.42637       -1.32513
C         -3.44308        2.75701        0.00940
H          0.24240        3.36406        0.19734
C         -1.60686        4.56154       -0.02003
H          0.35073        2.37191       -1.94269
C         -1.50106        3.11585       -2.84543
C         -2.98244        3.31806       -2.46004
H         -4.04161        1.56830       -1.61894
H         -4.07024        2.16447        0.66811
C         -2.90266        4.02338        0.62694
H         -1.84434        5.19203       -0.87645
H         -1.11076        5.21284        0.70134
H         -1.15163        3.97604       -3.43009
H         -1.41875        2.25238       -3.50861
H         -3.59728        3.10525       -3.33608
H         -3.17131        4.36057       -2.20610
H         -3.67644        4.80090        0.60464
H         -2.71645        3.82341        1.68444
