92
E:\Data\PythonProjects\short_bridge\out\l_34.out	Energy: -1765107.0325456
P         -0.34634       -0.10778       -0.21527
P          2.12958       -0.86509       -0.53296
O         -1.40412        0.10021       -1.46235
O         -1.35976       -0.50103        1.01778
O          3.01320       -1.95378        0.33034
O          2.77821       -1.15241       -2.00684
N          0.53724       -1.46715       -0.74952
C         -2.47708        0.98345       -1.25348
C         -2.41716        2.22312       -1.91400
H         -1.58027        2.42686       -2.56900
C         -3.42741        3.12706       -1.72967
H         -3.40831        4.07934       -2.24579
C         -4.49931        2.84359       -0.84829
C         -5.50912        3.80439       -0.59217
H         -5.46500        4.75460       -1.11117
C         -6.51426        3.54770        0.30298
H         -7.27788        4.29059        0.49519
C         -6.54530        2.31577        0.98813
H         -7.32694        2.12681        1.71325
C         -5.59434        1.35558        0.74923
H         -5.63416        0.42001        1.28811
C         -4.55250        1.57502       -0.18719
C         -3.53517        0.59697       -0.45859
C         -3.58050       -0.78113        0.10039
C         -4.69403       -1.66230       -0.12712
C         -5.75665       -1.34030       -1.00903
H         -5.73886       -0.40019       -1.54089
C         -6.80041       -2.20906       -1.20775
H         -7.59538       -1.94272       -1.89301
C         -6.84687       -3.44712       -0.53508
H         -7.68167       -4.11725       -0.69605
C         -5.82582       -3.80309        0.30637
H         -5.83981       -4.76062        0.81341
C         -4.72333       -2.93867        0.51946
C         -3.63723       -3.32909        1.33980
H         -3.67415       -4.28826        1.84184
C         -2.54297       -2.52111        1.47982
H         -1.69413       -2.81493        2.08268
C         -2.52174       -1.27216        0.83436
C          3.19065       -1.91159        1.71755
C          2.11180       -1.94837        2.59196
H          1.09979       -1.98151        2.21312
C          2.35505       -1.95837        3.96348
H          1.51930       -1.99153        4.65109
C          4.72731       -1.91490        3.55829
H          5.74444       -1.91235        3.92911
C          4.49832       -1.89709        2.18676
H          5.31815       -1.88110        1.48071
C          4.07684       -0.76247       -2.37656
C          4.22228        0.38438       -3.14585
H          3.34843        0.96593       -3.40996
C          5.49276        0.74638       -3.58334
H          5.61631        1.63377       -4.19117
C          6.42797       -1.18922       -2.49583
H          7.28193       -1.80955       -2.25482
C          5.16285       -1.56417       -2.05243
H          5.01330       -2.46656       -1.47614
C          0.01612       -2.71448       -1.40359
H         -1.01970       -2.78508       -1.06752
C          0.76307       -3.94999       -0.90666
H          0.73031       -4.03179        0.18014
H          1.80724       -3.94128       -1.22112
H          0.29509       -4.84081       -1.32800
C          0.02334       -2.59692       -2.92795
H         -0.52293       -1.71263       -3.25421
H         -0.46208       -3.47505       -3.35827
H          1.04103       -2.54339       -3.31348
Rh         1.46830        1.17189        0.31573
C          3.35509        1.97527        1.39699
C          3.35909        2.44204        0.10444
C          0.58644        3.27278        0.66669
C          0.50029        2.55437        1.83804
H          3.90801        1.06330        1.59310
C          2.94190        2.76136        2.62575
H          3.94685        1.88847       -0.62100
C          2.87557        3.78616       -0.37831
C          1.62546        4.33084        0.34693
H         -0.29039        3.26953        0.02790
H         -0.44412        2.06308        2.04929
C          1.45459        2.59388        3.00430
H          3.18404        3.81419        2.48508
H          3.54785        2.42168        3.46695
H          3.69219        4.51504       -0.30351
H          2.65795        3.69522       -1.44466
H          1.16153        5.08340       -0.29260
H          1.91196        4.85016        1.26076
H          1.15587        3.39636        3.69035
H          1.33147        1.66356        3.56214
C          6.59617       -0.03654       -3.25709
H          7.58187        0.24425       -3.60478
C          3.65781       -1.94267        4.44954
H          3.84005       -1.96114        5.51619
