98
E:\Data\PythonProjects\short_bridge\out\l_35.out	Energy: -1814468.0311287
P         -0.56998       -0.01432       -0.27930
P          1.91674       -0.65027       -0.75072
O         -1.61521        0.50818       -1.44321
O         -1.59742       -0.71901        0.79409
O          2.79448       -1.92172       -0.18568
O          2.58276       -0.54067       -2.23944
N          0.33009       -1.18215       -1.13731
C         -2.69536        1.30314       -1.02530
C         -2.63471        2.67272       -1.33747
H         -1.79058        3.04271       -1.90446
C         -3.65245        3.49450       -0.93686
H         -3.63240        4.54877       -1.18530
C         -4.73381        2.98759       -0.17536
C         -5.75255        3.84536        0.30926
H         -5.70747        4.89841        0.05768
C         -6.76747        3.36090        1.09204
H         -7.53788        4.02574        1.46138
C         -6.79992        1.99249        1.43031
H         -7.58962        1.61837        2.06976
C         -5.84027        1.13064        0.96161
H         -5.88135        0.08653        1.23625
C         -4.78784        1.59008        0.12983
C         -3.76118        0.71974       -0.37374
C         -3.80447       -0.75665       -0.19484
C         -4.90900       -1.55125       -0.66030
C         -5.96257       -1.01323       -1.44207
H         -5.94425        0.03331       -1.70929
C         -6.99778       -1.80307       -1.87580
H         -7.78574       -1.36929       -2.47865
C         -7.04425       -3.17419       -1.55123
H         -7.87228       -3.78163       -1.89369
C         -6.03149       -3.73456       -0.81798
H         -6.04531       -4.79147       -0.57940
C         -4.93777       -2.95240       -0.37062
C         -3.85937       -3.54017        0.33413
H         -3.89598       -4.59743        0.56713
C         -2.77252       -2.79332        0.69572
H         -1.92913       -3.23176        1.21222
C         -2.75139       -1.41888        0.39970
C          2.95597       -2.23409        1.17009
C          1.87382       -2.51848        1.99052
H          0.86468       -2.47193        1.60489
C          2.10429       -2.87716        3.31628
H          1.25669       -3.10020        3.95378
C          3.39690       -2.96962        3.83421
C          4.46506       -2.67907        2.97949
H          5.48075       -2.74466        3.35188
C          4.25441       -2.31275        1.65605
H          5.08556       -2.09473        0.99805
C          3.88661       -0.06614       -2.47279
C          4.04359        1.23504       -2.92696
H          3.17425        1.86695       -3.05650
C          5.31916        1.69483       -3.23766
H          5.43969        2.70752       -3.60406
C          6.44011        0.87143       -3.10732
C          6.24263       -0.43832       -2.66130
H          7.09236       -1.10512       -2.57238
C          4.97549       -0.91689       -2.34656
H          4.82819       -1.93775       -2.02217
C         -0.17292       -2.21876       -2.09990
H         -1.21246       -2.37887       -1.80889
C          0.57729       -3.53785       -1.93032
H          0.53198       -3.89886       -0.90246
H          1.62518       -3.44315       -2.21696
H          0.12140       -4.29072       -2.57493
C         -0.14698       -1.70973       -3.54142
H         -0.69680       -0.77392       -3.63533
H         -0.61887       -2.44871       -4.19199
H          0.87520       -1.55248       -3.88435
Rh         1.22656        1.09341        0.59034
C          3.09734        1.60145        1.85882
C          3.10493        2.38836        0.73212
C          0.32129        3.02244        1.46683
C          0.23548        2.02323        2.41030
H          3.65575        0.67299        1.81590
C          2.66956        2.03889        3.24587
H          3.70081        2.04646       -0.10821
C          2.61233        3.80865        0.61261
C          1.35124        4.13603        1.44227
H         -0.55205        3.17876        0.84262
H         -0.70507        1.48596        2.47834
C          1.18175        1.76673        3.55543
H          2.90176        3.09418        3.38494
H          3.27396        1.49767        3.97527
H          3.42120        4.49868        0.88350
H          2.40396        3.99791       -0.44260
H          0.88395        5.02480        1.01527
H          1.62574        4.40319        2.46220
H          0.87062        2.36145        4.42345
H          1.06475        0.72251        3.85160
C          7.82157        1.38059       -3.42734
H          8.32611        1.73743       -2.52470
H          8.44432        0.59598       -3.85915
H          7.78630        2.21109       -4.13296
C          3.63914       -3.40489        5.25627
H          3.85051       -4.47687        5.30422
H          4.49433       -2.88643        5.69252
H          2.76941       -3.21495        5.88609
