116
E:\Data\PythonProjects\short_bridge\out\l_37c.out	Energy: -1962530.7578074
P          1.16975       -0.40502       -0.19805
P         -1.33237       -0.29454       -0.93153
O          2.16165       -1.68130       -0.52809
O          2.24710        0.83466       -0.11356
O         -2.18224        0.96331       -1.56300
O         -2.05910       -1.51000       -1.74707
N          0.23925       -0.32546       -1.62522
C          3.25422       -1.88375        0.33082
C          3.17253       -2.97190        1.21753
H          2.30226       -3.61377        1.17809
C          4.20209       -3.20240        2.08841
H          4.16541       -4.04747        2.76527
C          5.31825       -2.33163        2.13496
C          6.35225       -2.51823        3.08601
H          6.29049       -3.36416        3.76043
C          7.40270       -1.64196        3.16502
H          8.18466       -1.79082        3.89875
C          7.45724       -0.53277        2.29627
H          8.27586        0.17120        2.37867
C          6.48297       -0.33337        1.35053
H          6.54172        0.52545        0.69764
C          5.39308       -1.23133        1.22237
C          4.35056       -1.05162        0.24981
C          4.40949       -0.00150       -0.80249
C          5.49739        0.08234       -1.73928
C          6.51383       -0.90290       -1.82140
H          6.47832       -1.75814       -1.16238
C          7.53405       -0.79426       -2.73299
H          8.29340       -1.56471       -2.78079
C          7.60169        0.30544       -3.61251
H          8.41777        0.38085       -4.31979
C          6.62395        1.26472       -3.57893
H          6.65355        2.10402       -4.26368
C          5.54593        1.17372       -2.66366
C          4.50153        2.12994       -2.66785
H          4.55363        2.96410       -3.35699
C          3.42715        1.99319       -1.83316
H          2.60847        2.70029       -1.84089
C          3.38629        0.91333       -0.93347
C         -2.28359        2.23002       -0.97357
C         -1.17219        3.02033       -0.73378
H         -0.17996        2.65881       -0.96696
C         -1.34463        4.29882       -0.20327
H         -0.46174        4.89718       -0.02959
C         -2.60957        4.81389        0.08542
C         -3.70935        3.98332       -0.17527
H         -4.71240        4.33744        0.02440
C         -3.55847        2.70645       -0.69651
H         -4.41906        2.08225       -0.89980
C         -3.37364       -1.94106       -1.48966
C         -3.55998       -3.09228       -0.74403
H         -2.70272       -3.61700       -0.34157
C         -4.85174       -3.57497       -0.54434
H         -4.97249       -4.47926        0.03456
C         -5.96787       -2.93101       -1.08439
C         -5.73347       -1.77516       -1.84211
H         -6.56495       -1.24988       -2.29399
C         -4.45446       -1.27762       -2.05382
H         -4.29207       -0.39475       -2.65667
C         -7.45535       -4.71640       -0.02859
H         -7.05787       -4.54605        0.97457
H         -6.90455       -5.54275       -0.48279
H         -8.49205       -5.03844        0.08204
C          0.70413       -0.46070       -3.04625
H          1.75438       -0.16543       -3.01891
C         -0.03863        0.50846       -3.96317
H          0.04604        1.53841       -3.61551
H         -1.09678        0.25638       -4.04051
H          0.39244        0.45116       -4.96371
C          0.62071       -1.90830       -3.53139
H          1.16667       -2.57552       -2.86537
H          1.06570       -1.98043       -4.52579
H         -0.41442       -2.24288       -3.59253
C         -7.40285       -3.44592       -0.89217
C         -8.01672       -3.77348       -2.27117
H         -8.05895       -2.89594       -2.91811
H         -7.43662       -4.54212       -2.78591
H         -9.03690       -4.14413       -2.14966
C         -8.25048       -2.35624       -0.20003
H         -7.84156       -2.10509        0.78129
H         -8.29713       -1.43941       -0.78976
H         -9.27408       -2.70980       -0.05841
C         -2.82932        6.22634        0.64931
C         -3.56193        6.13105        2.00538
H         -3.72889        7.12997        2.41404
H         -4.53517        5.64687        1.91119
H         -2.97239        5.56535        2.73072
C         -3.69009        7.04222       -0.34030
H         -4.66922        6.58816       -0.49991
H         -3.85229        8.05100        0.04561
H         -3.19730        7.12651       -1.31103
C         -1.50693        6.97829        0.86927
H         -0.85841        6.46622        1.58385
H         -0.95412        7.11409       -0.06265
H         -1.71511        7.97101        1.27161
Rh        -0.59169       -0.34188        1.25125
C         -2.41152        0.40056        2.47830
C         -2.46451       -0.97056        2.40171
C          0.34588       -0.87438        3.28750
C          0.47043        0.48134        3.08110
H         -2.97104        0.95791        1.73533
C         -1.92816        1.20703        3.66752
H         -3.09274       -1.40036        1.62783
C         -1.97791       -1.95795        3.43255
C         -0.68569       -1.54800        4.17263
H          1.19336       -1.48989        3.00505
H          1.41368        0.83627        2.67827
C         -0.42907        1.57072        3.60707
H         -2.15482        0.67248        4.58933
H         -2.50248        2.13379        3.70646
H         -2.77610       -2.14673        4.16131
H         -1.81093       -2.91012        2.92434
H         -0.23685       -2.44719        4.59766
H         -0.92014       -0.90241        5.01836
H         -0.08334        1.87839        4.60196
H         -0.30002        2.44264        2.96288
