94
E:\Data\PythonProjects\short_bridge\out\l_38.out	Energy: -1873109.3352081
P         -1.34839       -0.11816       -0.01685
P          1.34294       -0.11820        0.07047
O         -2.29659        0.10889       -1.33855
O         -2.30655        0.39341        1.22935
O          2.32520        0.08318        1.37115
O          2.26943        0.41594       -1.19006
C         -3.09522        1.26493       -1.43606
C         -2.74486        2.18530       -2.43825
H         -1.91033        1.96138       -3.08969
C         -3.47963        3.33085       -2.57728
H         -3.23297        4.04537       -3.35312
C         -4.55326        3.61207       -1.69841
C         -5.27267        4.82973       -1.79040
H         -5.00511        5.53233       -2.57071
C         -6.27511        5.12393       -0.90416
H         -6.81435        6.05959       -0.97956
C         -6.59459        4.21019        0.12115
H         -7.36993        4.45769        0.83535
C         -5.93058        3.01409        0.22775
H         -6.18727        2.33218        1.02540
C         -4.90310        2.66353       -0.68474
C         -4.18030        1.42480       -0.60013
C         -4.54938        0.35491        0.36959
C         -5.85183       -0.24966        0.39264
C         -6.83518        0.01515       -0.59418
H         -6.60580        0.69592       -1.40123
C         -8.06722       -0.58707       -0.54485
H         -8.79883       -0.37409       -1.31417
C         -8.39063       -1.48367        0.49435
H         -9.37058       -1.94277        0.52429
C         -7.45833       -1.78023        1.45367
H         -7.69032       -2.48062        2.24732
C         -6.16938       -1.19183        1.42285
C         -5.18583       -1.53526        2.38227
H         -5.44284       -2.22854        3.17406
C         -3.92170       -1.01737        2.30315
H         -3.15138       -1.27798        3.01712
C         -3.61942       -0.10075        1.28128
C          3.13149        1.23401        1.46845
C          2.81169        2.13707        2.49625
H          1.99338        1.90466        3.16505
C          3.55523        3.27667        2.63725
H          3.33222        3.97768        3.43234
C          4.60702        3.56955        1.73607
C          5.33442        4.78215        1.83185
H          5.09060        5.47120        2.63178
C          6.31488        5.08854        0.92539
H          6.86039        6.02028        1.00406
C          6.60316        4.19275       -0.12471
H          7.36083        4.45021       -0.85420
C          5.93086        3.00172       -0.23613
H          6.16340        2.33375       -1.05275
C          4.92581        2.63860        0.69620
C          4.19519        1.40471        0.60753
C          4.53383        0.35163       -0.39130
C          5.83244       -0.25769       -0.46019
C          6.84286       -0.01548        0.50482
H          6.63807        0.65086        1.33034
C          8.07041       -0.62163        0.41137
H          8.82317       -0.42614        1.16477
C          8.36203       -1.49976       -0.65272
H          9.33877       -1.96210       -0.71740
C          7.40318       -1.77450       -1.59216
H          7.61081       -2.46077       -2.40467
C          6.11816       -1.18167       -1.51592
C          5.10773       -1.50356       -2.45469
H          5.34040       -2.18328       -3.26553
C          3.84850       -0.98217       -2.33229
H          3.05794       -1.22709       -3.02948
C          3.57799       -0.08308       -1.28629
Rh        -0.00148       -1.97318        0.01933
C         -1.51333       -3.68472        0.47692
C         -1.41927       -3.53192       -0.88429
C          1.51338       -3.67905       -0.44045
C          1.41891       -3.52919        0.92127
H         -2.32045       -3.15526        0.97166
C         -0.82188       -4.74841        1.30760
H         -2.17041       -2.91460       -1.36719
C         -0.55090       -4.31819       -1.83306
C          0.82526       -4.74334       -1.27321
H          2.31924       -3.14676       -0.93431
H          2.16878       -2.91141        1.40551
C          0.55294       -4.32018        1.86833
H         -0.72706       -5.66415        0.72545
H         -1.46849       -4.99504        2.15124
H         -1.09870       -5.20677       -2.17103
H         -0.40132       -3.70722       -2.72574
H          1.47261       -4.98618       -2.11737
H          0.73332       -5.66059       -0.69299
H          1.10352       -5.20783        2.20429
H          0.40147       -3.71167        2.76236
C         -0.00336        1.16141        0.05383
H         -0.04781        1.76340        0.96264
H          0.03878        1.81431       -0.81903
