95
E:\Data\PythonProjects\short_bridge\out\l_42.out	Energy: -1789784.3034327
P         -0.34746       -0.02180       -0.19188
P          2.13010       -0.79062       -0.45843
O         -1.40645        0.10616       -1.44884
O         -1.35981       -0.34107        1.06370
O          3.01363       -1.81496        0.48066
O          2.78653       -1.17425       -1.90637
N          0.53955       -1.40851       -0.64261
C         -2.47875        1.00104       -1.29457
C         -2.41908        2.19714       -2.03113
H         -1.58289        2.35902       -2.69860
C         -3.42847        3.11157       -1.90199
H         -3.40949        4.02989       -2.47638
C         -4.49923        2.88431       -1.00313
C         -5.50795        3.86001       -0.80580
H         -5.46376        4.77619       -1.38276
C         -6.51213        3.66016        0.10480
H         -7.27491        4.41419        0.25157
C         -6.54330        2.47302        0.86493
H         -7.32423        2.32998        1.60125
C         -5.59335        1.49908        0.68486
H         -5.63324        0.59870        1.28069
C         -4.55244        1.65926       -0.26453
C         -3.53610        0.66553       -0.47590
C         -3.58154       -0.67541        0.16716
C         -4.69583       -1.56811       -0.00486
C         -5.75930       -1.29989       -0.90360
H         -5.74153       -0.39408       -1.49195
C         -6.80376       -2.17848       -1.04784
H         -7.59930       -1.95395       -1.74726
C         -6.85026       -3.37308       -0.30070
H         -7.68566       -4.05122       -0.41953
C         -5.82854       -3.67760        0.55991
H         -5.84270       -4.60226        1.12470
C         -4.72523       -2.80255        0.71856
C         -3.63822       -3.14288        1.55978
H         -3.67524       -4.06940        2.11983
C         -2.54318       -2.32871        1.64861
H         -1.69331       -2.58592        2.26656
C         -2.52204       -1.12133        0.92841
C          3.19144       -1.67549        1.86122
C          2.11326       -1.65045        2.73702
H          1.10074       -1.70908        2.36273
C          2.35758       -1.56459        4.10570
H          1.52222       -1.54926        4.79447
C          4.72944       -1.55010        3.69687
H          5.74688       -1.52163        4.06579
C          4.49943       -1.62832        2.32764
H          5.31886       -1.66179        1.62175
C          4.08985       -0.81810       -2.29281
C          4.24726        0.27068       -3.14026
H          3.37877        0.83612       -3.45253
C          5.52285        0.59465       -3.59245
H          5.65553        1.43631       -4.26043
C          6.43954       -1.26384       -2.36409
H          7.28831       -1.86990       -2.07348
C          5.16925       -1.60034       -1.90497
H          5.01052       -2.45900       -1.26764
C          0.01800       -2.69281       -1.22294
H         -1.02796       -2.72747       -0.91021
C          0.73436       -3.89710       -0.59675
H          0.72266       -3.78105        0.48979
H          1.78456       -3.89443       -0.89963
C          0.06393       -2.66685       -2.75114
H         -0.42556       -1.77254       -3.13511
H         -0.46302       -3.53342       -3.15137
H          1.09095       -2.68764       -3.11496
Rh         1.46187        1.29640        0.25455
C          3.34799        2.17803        1.27422
C          3.34531        2.55787       -0.04647
C          0.57042        3.41024        0.46879
C          0.49248        2.77111        1.68582
H          3.90476        1.28305        1.52873
C          2.93533        3.04306        2.44887
H          3.93280        1.95978       -0.73590
C          2.85478        3.86593       -0.61438
C          1.60246        4.45036        0.07572
H         -0.30905        3.36054       -0.16437
H         -0.44833        2.28971        1.93288
C          1.45022        2.89443        2.84332
H          3.17152        4.08516        2.23657
H          3.54593        2.76380        3.30873
H          3.66786        4.60205       -0.58725
H          2.63699        3.70585       -1.67252
H          1.13267        5.15541       -0.61187
H          1.88774        5.03194        0.95173
H          1.14961        3.74037        3.47411
H          1.33361        2.00381        3.46371
C          6.61965       -0.16850       -3.20328
H          7.60939        0.08233       -3.56225
C          3.66064       -1.51530        4.58866
H          3.84361       -1.45918        5.65388
C          0.09502       -5.23728       -0.96551
H          0.18560       -5.45703       -2.02982
H          0.58230       -6.04874       -0.42307
H         -0.96659       -5.25660       -0.70642
