74
E:\Data\PythonProjects\short_bridge\out\l_45.out	Energy: -1254399.2130621
P          0.60835       -0.80086       -0.22815
P         -2.12362       -0.95503       -0.93341
C          1.20729       -1.95268        1.08388
C          0.69211       -1.85760        2.37783
H         -0.03378       -1.08790        2.61123
C          1.10844       -2.74671        3.36462
H          0.70614       -2.66660        4.36677
C          2.04177       -3.73233        3.06390
H          2.36909       -4.42161        3.83202
C          2.56067       -3.82951        1.77492
H          3.29213       -4.59263        1.54038
C          2.14758       -2.94425        0.78694
H          2.56867       -3.01914       -0.20835
C         -0.52572       -1.87227       -1.27666
H         -0.52782       -2.90812       -0.94004
H         -0.28797       -1.86261       -2.33726
C         -3.29817       -2.23508       -0.20912
H         -3.26419       -3.07507       -0.90950
C         -2.81437       -2.72285        1.15969
H         -1.80662       -3.13783        1.12867
H         -3.48003       -3.50930        1.52192
H         -2.82212       -1.91463        1.89350
C         -4.73808       -1.71369       -0.13627
H         -4.82363       -0.85605        0.53405
H         -5.38727       -2.49749        0.25960
H         -5.13508       -1.42452       -1.10946
C         -2.83951       -0.51079       -2.61826
H         -3.77207        0.00556       -2.37062
C         -3.16800       -1.73028       -3.48671
H         -3.59124       -1.39720       -4.43710
H         -3.89500       -2.39696       -3.02338
H         -2.27390       -2.31346       -3.71966
C         -1.93453        0.48037       -3.35970
H         -0.99848        0.01573       -3.67663
H         -1.68666        1.34734       -2.74647
H         -2.43920        0.83275       -4.26167
Rh        -1.10090        0.77330        0.32338
C         -0.08119        2.15293        1.84205
C          0.17309        2.61547        0.56877
C         -2.70594        2.38171        0.16564
C         -2.90422        1.65937        1.32526
H          0.67457        1.51985        2.29311
C         -1.10076        2.73159        2.80415
H          1.12113        2.33727        0.12164
C         -0.54961        3.72840       -0.14857
C         -2.07563        3.75945        0.08140
H         -3.28677        2.08431       -0.70032
H         -3.64531        0.86821        1.29214
C         -2.48312        2.05087        2.71965
H         -1.19478        3.80448        2.63797
H         -0.72206        2.61911        3.82137
H         -0.11182        4.69315        0.13697
H         -0.34975        3.61749       -1.21634
H         -2.53873        4.30296       -0.74372
H         -2.31361        4.32506        0.98212
H         -3.24628        2.70117        3.16539
H         -2.47374        1.14500        3.33001
C          2.10218       -0.37212       -1.23679
C          3.20109        0.33078       -0.63512
C          2.14438       -0.66382       -2.58385
C          3.26640        0.66695        0.74048
C          4.30706        0.70908       -1.46436
C          3.23861       -0.29122       -3.39026
H          1.33522       -1.19566       -3.06229
C          4.34307        1.33932        1.26386
H          2.46654        0.37095        1.40416
C          5.40232        1.40243       -0.89232
C          4.29426        0.38395       -2.84242
H          3.23293       -0.54546       -4.44238
C          5.42344        1.71502        0.44168
H          4.36623        1.57713        2.32002
H          6.23005        1.68018       -1.53389
H          5.13780        0.67711       -3.45586
H          6.26754        2.24240        0.86718
