78
E:\Data\PythonProjects\short_bridge\out\l_48.out	Energy: -1302989.1473306
P         -2.39670       -0.99403       -0.35383
P          0.44512       -1.02230       -0.16610
C          0.70734       -0.94485        2.63746
H          0.25954        0.03778        2.55406
C         -3.48991       -1.82245        0.93441
H         -3.68180       -2.82284        0.53517
C         -2.77544       -1.96818        2.28018
H         -3.42499       -2.49979        2.97906
H         -2.54316       -0.99487        2.71596
H         -1.84558       -2.53145        2.20424
C         -4.82869       -1.09096        1.09140
H         -5.44562       -1.61838        1.82191
H         -5.39746       -1.04096        0.16272
H         -4.69137       -0.07261        1.46084
C         -3.41683       -1.00765       -1.94047
H         -4.24088       -0.32227       -1.72061
C         -3.99954       -2.38304       -2.28455
H         -3.21414       -3.12303       -2.45605
H         -4.58097       -2.31163       -3.20659
H         -4.66407       -2.76752       -1.51119
C         -2.62290       -0.42602       -3.11635
H         -2.19762        0.54974       -2.87950
H         -3.28072       -0.31207       -3.98051
H         -1.80588       -1.08391       -3.42105
C         -0.96869       -2.15627       -0.67866
H         -0.93393       -2.35142       -1.74855
H         -1.00097       -3.10778       -0.14894
C          1.85675       -1.44214       -1.31293
C          1.71548       -2.55945       -2.14767
H          0.83651       -3.18367       -2.08172
C          2.68669       -2.91150       -3.07514
H          2.54388       -3.78480       -3.69877
C          3.83094       -2.13637       -3.19183
H          4.59757       -2.39026       -3.91288
C          3.99749       -1.03938       -2.35977
H          4.90634       -0.45486       -2.42462
C          3.04007       -0.67283       -1.40400
C          3.70876        1.72358       -1.12499
H          3.59409        1.84855       -2.19524
C          3.39718        0.48977       -0.53832
C          4.17229        2.78344       -0.35524
H          4.40875        3.72824       -0.82880
C          4.34606        2.62714        1.01681
H          4.72232        3.44745        1.61514
C          4.05333        1.40409        1.61028
H          4.21094        1.26414        2.67261
C          3.58452        0.34345        0.84027
H          3.40621       -0.61447        1.30801
C          0.93665       -1.69678        1.48454
C          1.52509       -2.96076        1.59519
H          1.73052       -3.55081        0.71019
C          1.87130       -3.46344        2.84390
H          2.32956       -4.44147        2.92111
C          1.63679       -2.70913        3.99124
H          1.91128       -3.10145        4.96235
C          1.05523       -1.45042        3.88649
H          0.87513       -0.85972        4.77608
Rh        -1.02743        0.90772       -0.03054
C         -2.60371        2.49539       -0.34030
C         -2.44520        2.25408        1.01433
C          0.39466        2.61523        0.53043
C          0.25198        2.56297       -0.83889
H         -3.42208        1.98408       -0.83455
C         -2.04061        3.68911       -1.08942
H         -3.16162        1.58763        1.48297
C         -1.64879        3.08251        1.99224
C         -0.30259        3.60312        1.44439
H          1.25024        2.10152        0.95212
H          1.01704        2.02873       -1.38964
C         -0.64303        3.42992       -1.68978
H         -2.01735        4.55634       -0.42935
H         -2.72482        3.94777       -1.89908
H         -2.26046        3.92344        2.34294
H         -1.46209        2.46537        2.87400
H          0.35371        3.82146        2.28826
H         -0.44589        4.55010        0.92390
H         -0.14243        4.38450       -1.89501
H         -0.75558        2.94001       -2.65917
