78
E:\Data\PythonProjects\short_bridge\out\l_49.out	Energy: -1302988.6507761
P          0.55110       -0.68626       -0.16335
P         -0.58940        1.88783       -0.48095
C          1.75327       -1.36076        1.07324
C          1.26659       -2.47556        1.77191
H          0.29893       -2.88607        1.51293
C          2.00076       -3.08669        2.77867
H          1.60324       -3.95279        3.29252
C          3.24288       -2.56476        3.12019
H          3.83037       -3.01443        3.91093
C          3.73900       -1.47060        2.42096
H          4.72235       -1.08492        2.65825
C          3.02248       -0.86475        1.37760
C          3.69998        0.24346        0.64273
C          4.05615        1.41693        1.31742
H          3.78882        1.53465        2.36087
C          4.74878        2.43053        0.66373
H          5.01569        3.33176        1.20166
C          5.11037        2.28186       -0.67179
H          5.65964        3.06572       -1.17783
C          4.77830        1.11185       -1.34735
H          5.07619        0.97833       -2.38002
C          4.07999        0.10041       -0.69563
H          3.84578       -0.81304       -1.22806
C          0.68875       -1.82563       -1.61343
C         -0.34049       -1.83542       -2.56080
H         -1.20962       -1.20556       -2.41533
C         -0.26417       -2.66201       -3.67545
H         -1.06567       -2.65910       -4.40367
C          0.83078       -3.50355       -3.84597
H          0.88657       -4.15428       -4.70945
C          1.84592       -3.51763       -2.89520
H          2.69274       -4.18187       -3.01413
C          1.77722       -2.68448       -1.78362
H          2.56512       -2.72208       -1.04347
C          1.04925        1.02567       -0.75521
H          1.37628        1.02029       -1.79413
H          1.84728        1.46113       -0.15480
C         -0.98028        2.79801       -2.08225
H         -0.07347        3.36878       -2.30399
C         -1.23275        1.82825       -3.24035
H         -0.39827        1.14694       -3.40880
H         -1.38149        2.39404       -4.16260
H         -2.12999        1.22964       -3.07164
C         -2.14686        3.77890       -1.91145
H         -3.07388        3.26612       -1.64682
H         -2.32397        4.29937       -2.85500
H         -1.95295        4.53812       -1.15378
C         -0.25433        3.23927        0.78719
H         -1.22921        3.72114        0.90832
C          0.76091        4.28727        0.31872
H          0.88819        5.04236        1.09793
H          0.44605        4.80619       -0.58659
H          1.74257        3.84534        0.13436
C          0.14228        2.63393        2.13924
H          1.12407        2.15772        2.09539
H         -0.58003        1.89013        2.47886
H          0.19879        3.42363        2.89149
Rh        -1.70201       -0.02059        0.35700
C         -2.70298       -2.05057        0.72967
C         -2.30459       -1.51012        1.93360
C         -3.65076        0.91514        1.06385
C         -3.79759        0.46786       -0.23613
H         -2.02623       -2.74847        0.24867
C         -4.12264       -2.04578        0.19811
H         -1.35216       -1.83225        2.33771
C         -3.16855       -0.77097        2.92582
C         -4.18238        0.20514        2.29407
H         -3.40711        1.96317        1.19972
H         -3.69054        1.20228       -1.02652
C         -4.44959       -0.81869       -0.68011
H         -4.82415       -2.11413        1.02964
H         -4.27486       -2.94698       -0.39772
H         -3.69445       -1.49229        3.56366
H         -2.50468       -0.21564        3.59162
H         -4.45360        0.95379        3.04003
H         -5.10673       -0.31570        2.04363
H         -5.53681       -0.67926       -0.73148
H         -4.12814       -1.01763       -1.70467
