113
E:\Data\PythonProjects\short_bridge\out\l_57a.out	Energy: -1854806.5190674
C         -1.00091       -1.03511        2.04306
H         -0.12945       -1.63361        1.74934
C         -0.60052       -0.29294        3.32185
H          0.20034        0.40891        3.10272
H         -0.22914       -0.99064        4.07339
H         -1.42855        0.26647        3.75392
C         -2.15118       -2.03014        2.23128
C         -2.76787       -2.62799        1.12583
H         -2.49253       -2.31922        0.12609
C         -3.76259       -3.58467        1.28434
H         -4.22914       -4.02219        0.41041
C         -4.16485       -3.97192        2.55882
H         -4.94018       -4.71694        2.68519
C         -3.56807       -3.38452        3.66650
H         -3.87544       -3.66995        4.66497
C         -2.57389       -2.42237        3.50423
H         -2.13226       -1.98455        4.38813
C          1.01701        2.51586        0.73228
H         -0.04849        2.48628        0.97324
C          1.75170        2.71133        2.05923
H          1.64470        1.83340        2.69149
H          1.32551        3.55900        2.59554
H          2.81578        2.90086        1.92376
C          1.19506        3.68324       -0.24565
C          1.76173        4.89318        0.16664
H          2.13530        5.01176        1.17360
C          1.86533        5.97417       -0.70541
H          2.31245        6.89767       -0.35860
C          1.39896        5.87131       -2.00943
H          1.47955        6.71092       -2.68833
C          0.82191        4.67725       -2.43023
H          0.44598        4.58435       -3.44205
C          0.71808        3.59976       -1.55794
H          0.26033        2.68395       -1.90165
C          3.93171        1.02347       -1.35950
C          4.33770        2.47791       -1.07668
H          4.90764        2.59754       -0.15774
H          3.48296        3.14700       -1.04348
H          4.98377        2.81239       -1.89318
C          3.21946        0.97621       -2.72385
H          3.90419        1.34526       -3.49137
H          2.33517        1.61235       -2.73681
H          2.91641       -0.03515       -2.99635
C          5.19458        0.13995       -1.39842
H          5.83066        0.48161       -2.21856
H          4.97124       -0.91189       -1.57845
H          5.77598        0.20601       -0.47970
C          3.60073       -0.02900        1.51664
C          3.16397       -1.11125        2.29022
H          2.37085       -1.74580        1.91201
C          3.73824       -1.38787        3.52557
H          3.38351       -2.22907        4.10811
C          4.77407       -0.59354        4.00410
H          5.22914       -0.80959        4.96249
C          5.22657        0.47796        3.24131
H          6.03504        1.10007        3.60450
C          4.64520        0.75972        2.01041
H          5.01394        1.60489        1.45110
C         -2.55244        0.53967        0.71067
H         -3.20885       -0.07951        1.31712
C         -2.69028        1.96275        1.25716
C         -2.45687        3.09328        0.47143
H         -2.15811        2.98434       -0.56253
C         -2.61923        4.37132        0.99658
H         -2.42986        5.23419        0.37044
C         -3.03708        4.54108        2.31226
H         -3.17352        5.53606        2.71704
C         -3.30010        3.42349        3.09760
H         -3.64983        3.54367        4.11556
C         -3.13197        2.14822        2.56991
H         -3.36826        1.28659        3.18377
C         -2.10919        0.49673       -1.74405
C         -3.02433        0.41205       -0.72636
C         -4.40208        0.22678       -1.06135
C         -5.43391        0.16129       -0.09064
H         -5.19719        0.26312        0.95913
C         -6.74464       -0.01448       -0.45953
H         -7.51411       -0.05748        0.30118
C         -7.10156       -0.13395       -1.81763
H         -8.13961       -0.27180       -2.09206
C         -6.13225       -0.06850       -2.78466
H         -6.39606       -0.15252       -3.83238
C         -4.77085        0.11676       -2.44104
C         -3.76909        0.20441       -3.43987
H         -4.05854        0.12642       -4.48088
C         -2.45682        0.39171       -3.10418
H         -1.68020        0.47386       -3.85305
N         -1.21095       -0.11292        0.88949
N          1.26758        1.15990        0.14358
O         -0.77036        0.75915       -1.46383
P          0.04862       -0.00308       -0.23611
P          2.73870        0.20602       -0.11077
Rh         1.49848       -1.69192       -0.80410
C          2.97918       -2.96761       -2.05809
C          3.12457       -3.31225       -0.73660
C          0.21473       -3.57956       -0.77509
C          0.06141       -2.96021       -1.99845
H          3.65159       -2.21274       -2.44599
C          2.22931       -3.75817       -3.11173
H          3.92417       -2.83358       -0.18088
C          2.49845       -4.49723       -0.04602
C          1.05631       -4.81213       -0.49744
H         -0.53138       -3.36158       -0.02200
H         -0.81190       -2.32869       -2.12929
C          0.76168       -3.31593       -3.28550
H          2.28302       -4.82149       -2.88168
H          2.74408       -3.63150       -4.06574
H          3.13227       -5.38150       -0.18754
H          2.50409       -4.30037        1.02814
H          0.56752       -5.38863        0.28965
H          1.06581       -5.45645       -1.37605
H          0.19831       -4.09924       -3.80796
H          0.72591       -2.43970       -3.93656
