84
E:\Data\PythonProjects\short_bridge\out\l_59.out	Energy: -1352338.0097613
Rh        -1.72842       -0.36336        0.24232
P         -0.82215        1.80814       -0.34974
P          0.61167       -0.61496       -0.00110
C         -3.74557        0.11058        1.15111
H         -3.63040        1.13028        1.50066
C         -3.96239       -0.90316        2.24649
H         -5.01194       -0.87918        2.56570
H         -3.38157       -0.58278        3.11429
C         -3.55903       -2.34508        1.87343
H         -3.37622       -2.90113        2.79437
H         -4.38502       -2.85561        1.37801
C         -2.31536       -2.41916        1.00638
H         -1.43136       -2.80650        1.49965
C         -2.29514       -2.42727       -0.37732
H         -1.40426       -2.82199       -0.85375
C         -3.48341       -2.31308       -1.29937
H         -3.93578       -3.30380       -1.43447
H         -3.11249       -2.02003       -2.28382
C         -4.55644       -1.30569       -0.83965
H         -5.14622       -1.00436       -1.70707
H         -5.25664       -1.78080       -0.15294
C         -3.97457       -0.06317       -0.19474
H         -3.99911        0.83203       -0.80359
C         -0.25281        3.45277       -2.67110
H          0.66605        2.89006       -2.84017
H         -0.00567        4.33844       -2.09146
H         -0.60359        3.79179       -3.64982
C         -1.35952        2.60290       -2.02444
C         -2.61708        3.46555       -1.83137
H         -3.00539        3.74921       -2.81295
H         -2.40490        4.38772       -1.29193
H         -3.41453        2.93680       -1.30672
C         -1.69545        1.43849       -2.97476
H         -2.48484        0.79913       -2.58254
H         -0.82893        0.80977       -3.18323
H         -2.03165        1.84954       -3.93021
C         -0.54726        3.11403        1.03590
C         -1.90433        3.61176        1.56248
H         -2.49946        4.11866        0.80604
H         -1.72446        4.32756        2.36877
H         -2.49684        2.79830        1.98082
C          0.30391        4.30951        0.58435
H          1.24298        4.00646        0.11823
H          0.55673        4.91171        1.46139
H         -0.23091        4.96001       -0.10625
C          0.16908        2.39208        2.19037
H         -0.37789        1.50823        2.52254
H          0.24006        3.07728        3.03898
H          1.18354        2.08975        1.93307
C          0.88048        1.08943       -0.71349
H          1.04443        1.02535       -1.78704
H          1.72345        1.62686       -0.28641
C          1.21032       -1.90022       -1.18422
C          1.15759       -1.71208       -2.56751
H          0.83845       -0.76762       -2.98771
C          1.52680       -2.73647       -3.43258
H          1.49316       -2.57203       -4.50237
C          1.93844       -3.96586       -2.92797
H          2.22564       -4.76206       -3.60286
C          1.97888       -4.16646       -1.55213
H          2.29907       -5.11970       -1.15048
C          1.61533       -3.14247       -0.68378
H          1.66856       -3.31052        0.38454
C          1.66567       -0.79803        1.51203
C          1.02490       -1.35612        2.62484
H         -0.02134       -1.61869        2.55168
C          1.69171       -1.55466        3.82648
H          1.17205       -1.99342        4.66875
C          3.02176       -1.17397        3.93591
H          3.55946       -1.31801        4.86466
C          3.66506       -0.60010        2.84707
H          4.70249       -0.30256        2.93504
C          3.01956       -0.40429        1.61998
C          3.81562        0.25235        0.53900
C          4.18784       -0.41961       -0.62835
H          3.88399       -1.44574       -0.77918
C          4.97661        0.20975       -1.58693
H          5.26695       -0.33168       -2.47879
C          5.40755        1.51798       -1.39535
H          6.02507        2.00322       -2.14072
C          5.05722        2.19239       -0.22965
H          5.40241        3.20523       -0.06240
C          4.27476        1.56228        0.73161
H          4.01826        2.08872        1.64353
