75
E:\Data\PythonProjects\short_bridge\out\l_63.out	Energy: -1453087.0296871
P         -0.10043       -1.23207        0.30239
N         -0.93027        0.29852        0.61050
C         -0.01253       -2.10872        1.91104
C          0.15494       -3.49806        1.94641
C          0.35272       -4.14719        3.16008
C          0.38592       -3.42016        4.34566
C          0.23102       -2.03758        4.31517
C          0.04327       -1.38153        3.10444
C         -1.12678       -2.25463       -0.81552
C         -0.87347       -2.16904       -2.18872
C         -1.63867       -2.89931       -3.08929
C         -2.66073       -3.72106       -2.62521
C         -2.92126       -3.80709       -1.26082
C         -2.15995       -3.07802       -0.35625
C         -2.30122        0.45112        1.18153
C         -2.45518        1.76920        1.94881
C         -3.42071        0.27511        0.16389
C         -3.37092        0.82885       -1.11484
C         -4.45712        0.71027       -1.97635
C         -5.60890        0.04489       -1.56969
C         -5.66815       -0.50717       -0.29457
C         -4.57921       -0.39429        0.56257
H          0.12531       -4.07966        1.03391
H          0.47669       -5.22262        3.17783
H          0.53453       -3.92874        5.28974
H          0.26036       -1.46706        5.23490
H         -0.05693       -0.30388        3.09261
H         -0.08187       -1.52391       -2.55089
H         -1.43686       -2.82852       -4.15057
H         -3.25591       -4.29278       -3.32608
H         -3.72149       -4.44053       -0.89987
H         -2.37511       -3.15297        0.70120
H         -2.39121       -0.35919        1.90925
H         -2.48535        1.35493       -1.44600
H         -4.40421        1.14382       -2.96753
H         -6.45409       -0.04180       -2.24085
H         -6.55994       -1.02712        0.03285
H         -4.63519       -0.82903        1.55519
H         -3.43538        1.78157        2.42495
H         -2.41185        2.63038        1.28144
H         -1.69325        1.87734        2.72106
Rh         1.83056       -0.15599       -0.45686
C          3.39951        1.03363       -1.62752
C          3.67453        1.14665       -0.28152
C          3.46853       -1.78742       -0.24902
C          2.92832       -1.87197       -1.50873
H          2.81017        1.82665       -2.07550
C          4.12442        0.12785       -2.60610
H          3.31650        2.03713        0.22523
C          4.67299        0.34469        0.51524
C          4.79215       -1.13911        0.10536
H          3.04050       -2.42794        0.51490
H          2.14330       -2.60549       -1.66241
C          3.47984       -1.26604       -2.77540
H          5.16758        0.02935       -2.30733
H          4.13746        0.61734       -3.58104
H          5.65824        0.82338        0.45367
H          4.37979        0.40340        1.56538
H          5.23053       -1.69046        0.93870
H          5.48628       -1.24968       -0.72698
H          4.20620       -1.95517       -3.22371
H          2.66011       -1.19460       -3.49348
C         -0.41462        3.77191       -0.34066
C          0.13371        3.76876        0.93343
C         -0.91362        4.92134       -0.91429
C          0.20353        4.91461        1.69601
C         -0.84435        6.09227       -0.15395
H         -1.33935        4.90920       -1.90822
C         -0.29516        6.08930        1.12546
H          0.63161        4.89807        2.68895
H         -1.22323        7.01529       -0.57229
H         -0.25253        7.00990        1.69227
P          0.27820        1.38088        0.11063
O          0.57552        2.50732        1.31532
O         -0.39033        2.51126       -0.92922
