88
E:\Data\PythonProjects\short_bridge\out\l_72.out	Energy: -1539264.4449543
P         -0.44206        1.23853        0.11222
P          0.59513       -1.28745        0.05072
N         -0.88514       -0.40844        0.51419
C         -1.57601        1.89616       -1.17808
C         -2.77175        2.54735       -0.85723
H         -3.06250        2.67549        0.17663
C         -3.59325        3.03492       -1.86746
H         -4.51429        3.54329       -1.61093
C         -3.23502        2.87266       -3.20256
H         -3.87577        3.25758       -3.98602
C         -2.04907        2.22217       -3.52961
H         -1.76400        2.10102       -4.56719
C         -1.22107        1.74109       -2.52201
H         -0.28718        1.25409       -2.77591
C         -0.73657        2.33694        1.55879
C         -0.98289        1.85111        2.84259
H         -1.10251        0.79190        3.00835
C         -1.10364        2.72810        3.91655
H         -1.30941        2.33791        4.90550
C         -0.96815        4.09753        3.72188
H         -1.06246        4.77814        4.55850
C         -0.71726        4.59131        2.44471
H         -0.61588        5.65724        2.28355
C         -0.60236        3.71904        1.36957
H         -0.42464        4.12329        0.38013
C          0.21115       -2.52406       -1.26011
C         -0.26145       -3.81516       -0.99660
H         -0.39593       -4.15304        0.02127
C         -0.56234       -4.67972       -2.04262
H         -0.92570       -5.67651       -1.82597
C         -0.39595       -4.26952       -3.36200
H         -0.62867       -4.94704       -4.17385
C          0.07447       -2.98913       -3.63481
H          0.21108       -2.66704       -4.65950
C          0.37859       -2.12352       -2.59093
H          0.75004       -1.12918       -2.80552
C          1.25599       -2.23266        1.48702
C          1.22338       -1.64946        2.75890
H          0.72578       -0.70073        2.90717
C          1.84081       -2.27030        3.83666
H          1.79710       -1.81247        4.81700
C          2.52306       -3.47049        3.65620
H          3.00573       -3.95321        4.49648
C          2.59165       -4.03977        2.39016
H          3.13193       -4.96580        2.23848
C          1.96629       -3.42551        1.30897
H          2.04028       -3.88197        0.33159
Rh         1.74133        0.66496       -0.46181
C          2.59499        2.58924       -1.37398
C          2.76196        2.63365       -0.00711
C          3.91925       -0.03828       -0.29919
C          3.50153       -0.18970       -1.60322
H          1.71559        3.07988       -1.77731
C          3.67840        2.25664       -2.38358
H          2.02062        3.17844        0.56720
C          4.00955        2.28969        0.76800
C          4.79944        1.08264        0.21950
H          3.83892       -0.90521        0.34735
H          3.16800       -1.17768       -1.90385
C          3.75941        0.75792       -2.74955
H          4.64135        2.60744       -2.01305
H          3.48598        2.82322       -3.29623
H          4.66452        3.16867        0.81795
H          3.71046        2.08302        1.79760
H          5.42447        0.68691        1.02170
H          5.48532        1.40164       -0.56503
H          4.73821        0.54016       -3.19496
H          3.02664        0.54189       -3.53054
C         -2.97265       -1.57738       -0.12506
C         -2.35780       -1.44480        2.18952
C         -3.34809       -2.91441        0.57318
H         -2.34579       -1.75020       -0.99879
C         -2.56588       -2.93127        1.89487
H         -3.25268       -1.02016        2.64965
H         -1.50575       -1.24617        2.83226
H         -4.41840       -2.92888        0.77525
H         -3.11561       -3.76909       -0.06168
H         -3.10451       -3.44210        2.69350
H         -1.59985       -3.42879        1.78262
N         -2.18184       -0.79312        0.87265
C         -4.20871       -0.82354       -0.60216
H         -4.73199       -1.45192       -1.33963
H         -3.92078        0.10784       -1.10110
C         -6.28334        0.04425        0.12899
H         -6.86105       -0.61006       -0.53574
H         -6.85027        0.21066        1.04336
H         -6.12789        1.00582       -0.37561
O         -5.05319       -0.55242        0.50070
