84
E:\Data\PythonProjects\short_bridge\out\l_77.out	Energy: -1164020.1449802
C         -0.00002       -2.33884       -0.00017
H         -0.33979       -2.97943       -0.81324
H          0.33971       -2.97965        0.81275
C         -1.41915       -1.42312        2.39397
H         -1.74978       -2.44215        2.59544
H         -2.11633       -0.72223        2.85013
H         -0.43961       -1.26841        2.84515
C         -2.97103       -1.59734       -0.18618
C         -4.01518       -0.67605        0.51696
H         -3.58259        0.32562        0.61453
H         -4.11821       -1.05373        1.53785
C         -3.22892       -3.08637        0.10132
H         -3.35925       -3.28445        1.16596
H         -2.41909       -3.71935       -0.26641
H         -4.13754       -3.41504       -0.40109
C         -2.84101       -1.37762       -1.70071
H         -3.75327       -1.68998       -2.20804
H         -2.03193       -1.98067       -2.11946
H         -2.65010       -0.33434       -1.95272
C          1.41931       -1.42298       -2.39413
H          1.74988       -2.44203       -2.59562
H          2.11659       -0.72214       -2.85020
H          0.43982       -1.26818       -2.84539
C          2.97100       -1.59735        0.18613
C          3.22891       -3.08637       -0.10144
H          4.13748       -3.41508        0.40103
H          3.35934       -3.28437       -1.16609
H          2.41904       -3.71938        0.26616
C          4.01520       -0.67602       -0.51687
H          3.58262        0.32564       -0.61443
H          4.11832       -1.05365       -1.53778
C          2.84086       -1.37773        1.70066
H          2.03172       -1.98077        2.11931
H          2.64998       -0.33446        1.95271
H          3.75306       -1.69016        2.20805
C         -1.54799        2.47721       -0.12144
H         -2.44689        1.95211       -0.42320
C         -1.15566        2.33860        1.19391
H         -1.79582        1.75023        1.84327
C         -0.13333        3.17342        1.92364
H         -0.61084        4.07479        2.32778
H          0.20376        2.60184        2.79117
C          1.09127        3.56853        1.07175
H          1.91664        3.80806        1.74420
H          0.88789        4.48096        0.51207
C          1.54800        2.47718        0.12142
H          2.44690        1.95208        0.42317
C          1.15567        2.33861       -1.19395
H          1.79583        1.75025       -1.84331
C          0.13335        3.17346       -1.92365
H          0.61088        4.07484       -2.32775
H         -0.20374        2.60192       -2.79121
C         -1.09126        3.56856       -1.07176
H         -0.88787        4.48098       -0.51207
H         -1.91662        3.80811       -1.74421
P         -1.28488       -1.09952        0.57588
P          1.28491       -1.09948       -0.57604
Rh         0.00000        0.81382       -0.00004
C          5.46929       -0.44574        0.01453
C          6.21942       -1.74493        0.34912
H          5.80893       -2.25105        1.22420
H          6.20932       -2.44517       -0.48902
H          7.26440       -1.51965        0.57282
C          5.50336        0.49697        1.23197
H          4.98796        1.43735        1.01807
H          5.05503        0.05978        2.12269
H          6.53751        0.74473        1.48047
C          6.21981        0.25629       -1.13726
H          7.23746        0.50853       -0.83321
H          6.28555       -0.38477       -2.01965
H          5.72291        1.18482       -1.43077
C         -5.46931       -0.44574       -0.01431
C         -5.50346        0.49704       -1.23169
H         -4.98808        1.43742       -1.01774
H         -5.05516        0.05994       -2.12245
H         -6.53763        0.74480       -1.48013
C         -6.21974        0.25623        1.13758
H         -7.23740        0.50851        0.83361
H         -6.28543       -0.38489        2.01993
H         -5.72281        1.18474        1.43111
C         -6.21947       -1.74491       -0.34891
H         -5.80905       -2.25099       -1.22405
H         -6.20930       -2.44518        0.48919
H         -7.26446       -1.51961       -0.57251
